LAMMPS data file via write_data, version 30 Mar 2026, timestep = 121210542, units = metal

6750 atoms
2 atom types

16.00879427795015 63.99120572193321 xlo xhi
16.00879427795015 63.99120572193321 ylo yhi
16.00879427795015 63.99120572193321 zlo zhi

Masses

1 63.546
2 91.224

Atoms # atomic

288 1 17.19357895401957 18.69874082348588 16.738089814997878 -1 0 0
1239 1 19.30175046677451 17.67945051754764 18.87976377138341 0 -1 3
2567 1 17.601354957660543 18.825946690270328 19.3433039168996 -1 -1 2
4772 2 16.725388396857017 16.42904634263021 21.13217402621123 -3 -1 3
301 1 21.428363777760513 18.762148401983083 18.770836111194853 -1 0 0
4116 1 17.4602589854492 16.108512439502103 18.354695501085025 1 -2 -1
5755 2 20.988639563467043 16.050878417060964 18.035623040736795 2 -2 1
5923 2 16.305541120527195 21.06021649141442 18.57538847831104 2 1 -2
5572 2 19.513426432083943 20.52408295350185 20.514735126872786 0 1 0
5545 2 19.072543810555786 20.43633674333035 17.275821988675798 -1 -1 -3
5743 2 19.576422314629756 17.685338167216308 21.54189442231351 1 1 -2
5165 2 22.675258272666262 19.439626033213784 16.72865031255679 -1 2 2
61 1 23.78890615277477 17.57775141649199 18.09086299495977 -4 2 -1
5859 2 26.24692814631033 18.418866022226073 18.533359904039617 2 2 2
6366 2 24.307890540401687 20.46554246974381 19.55906819858736 1 1 2
5397 2 22.555587020999717 17.0557696849066 20.333907270315365 2 2 1
130 1 22.25717201421977 19.885364552097464 21.17553743002882 0 2 -1
3218 1 27.67111106053931 20.399066539900556 20.131012902130735 2 1 -3
6006 2 28.464348687598463 16.60467494165519 17.59573773739783 2 -1 3
426 1 28.722411296638782 19.265286301592194 18.331525993354003 0 1 1
2306 1 28.14646149721601 17.742653149716503 20.460065776306386 -2 -3 -1
2296 1 30.895311470834294 17.710972556124354 18.193666417554713 1 0 -2
6202 2 31.31766985309229 20.641895429053257 17.101246170519914 -1 2 2
3130 1 31.886524425612777 21.114460291888257 20.029362946288337 3 2 4
5803 2 30.464085574765207 18.932600515697672 20.730466657264774 -2 3 -1
1227 1 29.68095764366608 21.296821638847646 19.449729261047185 2 5 5
799 1 30.077978318358127 63.989822522571345 19.836528762423967 1 -1 0
120 1 27.39732452059529 18.73265737083649 16.09813485428666 -5 -1 -2
3361 1 32.59736199008388 17.183855290504127 20.389180708815694 1 -1 0
1919 1 32.71360329613781 18.86310979331514 18.596144257860153 0 -1 1
4703 2 34.116047895152946 16.65572944050678 18.087242147783154 -1 4 -4
3248 1 36.65782325187925 17.49801113320637 19.236633081357805 0 -3 4
6097 2 35.15365989531295 20.02075344977883 19.349273847567325 3 -1 -2
40 1 36.100358894759395 19.01693564695068 17.269232422661535 0 -5 2
3705 1 35.05155453861488 21.15700152755134 16.51195079113207 2 3 1
1496 1 37.173817134805134 21.0146362634054 18.106177138214793 -2 -1 -1
5085 2 34.76392066810074 17.88311438864242 21.661448600551374 1 1 1
5350 2 33.331920009574496 19.255856366145295 63.71061491759485 -1 0 -1
875 1 38.638523672006585 19.216969905954784 18.529288303006698 2 0 2
1782 1 38.48200905499354 17.10055765254749 20.487941100427598 3 2 -2
5265 2 41.026879723601205 18.333170388724533 18.273822908341444 2 -2 0
4609 2 41.00122655442253 17.118173495706532 21.4341592244919 1 1 3
365 1 40.343402728171085 19.971367867160684 20.465743846034044 -3 -4 1
645 1 39.013133143282275 16.59518627685574 18.06697794371365 -3 3 3
6362 2 39.453967072951066 21.243231001593905 16.417625885843513 0 -1 0
2531 1 42.44449948514573 19.259929234841284 20.76791966215176 1 1 1
4647 2 41.941542704935316 21.63605846014268 19.106718091013022 2 0 0
1016 1 41.75030426870849 63.60810552160652 17.50244699577049 -2 3 -3
3876 1 43.56306387958517 18.93636194626804 18.4762396705256 -2 0 0
4547 2 45.874350667113774 20.507317498006977 18.207433562710968 0 1 2
1556 1 45.37619565823468 17.577987999931086 17.81531320743931 -2 0 2
4451 2 45.484803382432816 18.22920196554444 20.737260050550788 1 -2 2
60 1 44.2089042113557 20.956038152460433 20.614480479798647 -3 0 -1
6228 2 42.99118926513569 20.681491096740885 16.19570161159141 -2 2 -1
3707 1 47.67813263446372 20.42204291064178 16.118252679297512 -2 1 -1
2513 1 47.73861666096212 18.245612811413523 17.64035427175105 1 0 2
5591 2 43.09863928623262 16.29129175465814 19.474834009152048 -2 1 -2
5007 2 47.13903727413654 63.986157050944435 19.58890842783043 -1 -3 -1
4292 1 48.37913481984056 19.230532365057407 20.205283979685092 0 0 -1
2155 1 49.52803849514657 20.646013210899323 18.0764248049875 -1 0 5
4463 2 50.59398570465653 18.334767724912137 19.122735347922386 0 -1 -1
3762 1 51.713278121891236 21.43111722807877 17.448630945347922 0 -1 -2
947 1 49.61025179020774 63.85638481341742 20.359286955556357 -1 0 1
1979 1 49.900420383257654 16.598963702108776 17.259978312029475 0 -1 4
1215 1 52.08372677248292 17.035643229430008 16.283915612809526 -3 2 1
4110 1 53.518761067774214 16.557125429935358 18.361285599932188 -2 1 -1
5301 2 53.21191094085833 19.554546746927127 17.683558843977693 1 0 -1
4249 1 55.058412595182865 63.87050691086797 19.951203892027166 -2 0 1
3842 1 54.079710933622955 18.32943133000352 19.719879030118413 -1 -2 -2
5122 2 56.5531053920954 17.568748979388182 21.184919154026872 -2 -2 4
1967 1 55.86706769256007 17.22679999371302 18.188458824803895 -1 0 1
6361 2 56.58714976574056 20.01189609606845 18.47962762450998 0 2 -3
2469 1 57.97683406116393 17.65513714549601 17.633083012066937 -1 -2 -1
537 1 54.91091722390745 20.194186744932054 20.880624131453395 1 2 1
53 1 57.266729836306794 20.608958790751952 21.009550521751397 -4 1 2
3526 1 54.48282530546905 16.293254117024276 16.04895877990904 1 2 2
6266 2 63.20649100581763 17.035720170090592 18.40147085235897 -2 3 1
4205 1 59.69322900735952 17.979120546987136 19.563830234664128 1 0 -1
1181 1 59.369149857247116 19.951599014863042 20.4760320001013 0 1 1
4161 1 59.30952937968051 19.767250194096487 17.786127068158276 -1 3 -1
4608 2 61.47718767397849 19.73935243698678 18.916648300055098 -1 2 2
6561 2 60.4274866751055 17.468643098036683 16.729222245612455 0 -1 0
3187 1 62.1380957795789 16.64650585490014 21.03300172036597 1 3 3
3634 1 63.537386263095996 18.9846464544629 20.631337094532057 1 0 0
2588 1 60.87347780263921 63.95492026769907 19.154985646353378 -3 2 1
2489 1 62.43296780347798 19.43822399287766 16.310748322032303 -1 -2 -2
1568 1 61.26876050518203 21.838070785030975 17.411257751125984 -3 4 1
3271 1 18.715907292111684 22.937287716132392 19.0914785574695 1 -3 0
1675 1 19.21804892115627 23.353304124676974 16.686450609096287 -1 2 1
234 1 16.941502977220473 23.46673463694749 17.561828043972294 2 -2 2
536 1 20.95687038849561 24.429485282827567 18.41237695457455 1 1 0
5498 2 18.032509793602912 25.690422824797444 19.44189682481509 -2 0 -2
4753 2 19.02302195207491 26.02332342234947 16.493505714226384 1 0 0
1981 1 16.304229338885953 23.844846343923237 19.956612331856952 2 1 1
4674 2 63.81828555093976 25.735801959608974 16.60390843020829 -2 0 -1
5700 2 21.79145262879576 21.580691677449487 18.293639404892307 3 1 1
3411 1 24.409154663763047 22.277099203968913 17.651373396702713 3 -1 1
4750 2 23.41457171428763 24.36212797288041 19.252397769377485 1 0 -1
3604 1 24.661656892024688 25.06693029552912 16.73519468009717 -1 -1 -2
1827 1 25.945673749441017 23.944186366562263 18.123171663416947 -1 -2 1
3748 1 22.37685765879164 26.270433229731843 16.81032293054613 1 2 0
1730 1 25.938078281425312 25.352606153896293 20.332199253538995 -1 -1 1
5029 2 27.305506439328965 27.020864195099755 18.45762665168364 -3 2 2
2735 1 25.48682008747602 22.539730068377388 20.228717195212404 -2 -1 0
1063 1 23.686891196686275 26.108046229984453 21.23845899234064 -1 -1 1
5621 2 22.438128457996324 23.514966956743628 16.33114380533428 -3 1 1
5615 2 27.587287725128277 21.437559357175353 17.12261838281456 1 1 -3
657 1 27.652810639812433 24.235776057757402 16.765993044351585 4 0 0
4370 2 27.981438987118516 23.39642654294341 19.631199017855604 1 2 -3
3108 1 29.942503083475472 22.891404038716175 16.976993161923215 -1 3 5
2390 1 31.49887933825545 23.16476520713607 18.523798340815745 -1 -1 2
4650 2 29.886494068037983 25.37239323353927 17.822733975953174 4 1 1
593 1 30.62328904238117 22.9261396191783 20.95424565845122 0 -2 2
6451 2 31.48826237289873 25.171367880557618 20.300082530461506 -1 -2 0
4244 1 33.53602987870548 21.69776563542424 18.320199851219257 -1 1 -1
6737 2 34.03888850858799 22.46720511907542 21.125072529022507 4 0 1
1048 1 33.66083142945481 24.57013502870032 18.824345958407772 0 0 3
3594 1 35.74896254089224 23.169112239206683 18.124966952665588 2 1 4
2872 1 36.67563984824217 24.674018686328747 19.97552610333883 4 1 3
4566 2 35.45500905491811 26.23689486887214 17.57095392800597 0 1 -1
2908 1 37.253698969823496 22.188506633772224 20.06847006085014 1 1 0
626 1 34.82326458785519 25.909047091369853 20.272163357212573 -2 3 0
2765 1 36.275112378666066 23.976157703818476 63.83297419835158 -1 2 -1
2219 1 39.42300534038796 21.553181859848145 19.07189984255172 2 -4 1
4378 2 38.27194730257067 23.875186192890183 17.91082090794657 2 -2 -3
4358 2 40.50508328104807 23.982644760119037 20.17429712402667 1 -1 0
1094 1 40.80634688963649 23.370161760925647 17.518223640122883 2 3 -3
5665 2 38.03752828258596 27.025185716771162 19.43245511074548 1 -2 1
4274 1 40.22193767393891 26.0905729930042 18.171227002456167 -1 1 1
2611 1 38.67343927460482 24.70674268542659 21.48510291900483 0 -1 1
1787 1 43.63789917142749 23.431308239688367 20.317540057229103 2 2 -1
3207 1 44.2899659867732 22.50676692608466 18.301664655661963 1 -1 1
2236 1 47.84078398724321 22.664427651083734 18.394641941369446 2 1 -1
6597 2 45.902283509067104 25.225064268977356 18.086236947705448 1 3 -1
3383 1 46.28503491603168 22.69267220845632 20.153146014574048 1 4 4
5398 2 42.792590814040835 25.0626633955269 18.54085228740935 -1 -2 0
2167 1 45.313949271824484 24.997061322243102 21.621295059996143 0 0 1
3265 1 46.41735067743301 22.76089553451157 16.797698658517707 -1 1 1
2851 1 43.88487726623514 26.520323420357087 16.188849012949532 2 1 3
18 1 46.56658074177048 27.040335338147173 21.04162137870024 3 2 2
1414 1 51.7342514272358 21.923701370106194 19.867591702684926 0 0 2
4569 2 49.27624132082419 21.66519375262054 20.735629740582123 1 -1 0
4636 2 47.98025676543773 24.902438165004995 20.405542761643424 -1 1 1
3026 1 50.18716607642439 23.20289663378479 18.473847027659048 -3 4 -1
3133 1 52.42665435994887 23.793219592583952 17.817813740392975 2 0 -1
5735 2 51.09056433044984 24.393956477208818 20.635080836844928 -1 -1 3
2331 1 50.734326460814366 25.762860725400426 18.202915845023252 -2 0 -3
2631 1 50.37503260039133 27.21768946213586 20.141909686185024 0 1 1
6289 2 48.673036943903725 24.66796117969416 16.647060636958162 -2 1 -1
2463 1 53.28183632483694 25.495628690062354 19.026238931841153 2 2 2
6049 2 54.53001214314461 22.240986140039848 19.008681925026956 1 -1 2
3173 1 57.771555023525245 24.44345668704532 17.914872211585685 3 2 -2
2824 1 58.803753234437885 24.958265898722146 20.135994679529425 2 2 3
6140 2 55.09732433706856 24.444350290809297 17.120405682313702 -1 0 2
3872 1 56.4604332427103 22.298196322756702 17.174677321195364 -2 -1 0
4760 2 55.75973333579971 25.324681622980968 20.085803286046 0 2 -1
1461 1 57.37364636283988 26.29108735714688 16.832146563933414 1 4 2
1513 1 56.944738362234986 22.747688991611277 20.133151487494167 1 -3 -2
2075 1 53.750037502779534 24.054059585840186 21.071211575468922 2 2 3
2659 1 58.699978331506884 22.152500270932705 16.727606960295407 -1 -2 3
955 1 62.71143460448143 23.376007599290563 16.030634214693418 -3 3 1
223 1 61.31582956892071 24.360222738186817 20.269165184543706 -1 3 2
5050 2 60.204314931360805 24.916029213410575 17.699160032010123 -4 2 -1
4558 2 59.25578324681948 22.279510039584217 19.046451271157913 -1 2 -1
3455 1 62.572895781184144 23.272163471538654 18.63618983730784 0 2 2
5858 2 63.01863807889906 26.438543669619996 19.47095947557622 0 1 -1
5351 2 16.26857703615112 21.277553401881487 63.51720006671877 0 2 -2
6379 2 21.399965644169594 26.698919324869376 19.680673737456395 0 -1 -2
2966 1 19.800031148928056 28.530771671781636 18.26740865346102 1 0 0
3828 1 17.252178141593756 27.910595573983585 17.702849542094967 -2 -1 -1
5220 2 17.46642889165257 30.496060224799727 16.606447303576303 -2 -2 2
192 1 20.690963444199056 31.362299774062848 17.84852636630598 2 -2 1
3778 1 18.86372417446295 28.655364739832063 20.862515815189333 0 2 -2
6679 2 16.376592785604224 29.424636953156128 20.043134031402573 0 3 2
5263 2 20.15097895690302 29.303107252940492 63.92238203829392 -1 0 2
1190 1 24.417447153026593 26.954397918964247 18.580231921716468 -3 1 2
4747 2 21.57844194713239 30.692978256422485 20.35530253739655 1 0 -1
6622 2 22.692633883104776 29.222885468635575 17.80588030745935 2 0 -3
2746 1 25.47093292834864 29.275735958295027 18.549706947229996 0 0 1
5137 2 25.03541608823255 27.560038417782252 16.221264261087892 3 2 2
2158 1 24.293677584100912 31.83129063831602 18.084395608788476 -1 -1 4
406 1 23.436523865210358 28.713948171129942 20.23840224457182 0 -3 1
6312 2 25.642296745824332 30.80873499134499 20.609571183419575 0 1 1
1712 1 28.6800986323966 25.91833868866793 20.421352883235564 1 0 0
4904 2 26.965396225129155 31.687812098204205 17.84175735761994 1 1 1
4241 1 27.909906530964044 29.559649071751203 19.057141551992583 1 -1 -1
266 1 27.945605878940764 26.92361677995585 63.954902852390696 -1 1 -2
637 1 29.308548581542375 30.07502936572301 16.931382852334416 -2 0 1
4933 2 30.066138593908548 28.202034362375528 18.7961070168628 -1 -1 4
770 1 26.999981484374473 29.1861759312824 16.840198876751973 2 0 2
635 1 29.699173164132752 30.917493362731776 19.286240702820546 1 -1 6
506 1 31.910621489556895 30.279101259682804 18.174861981738832 0 -1 -2
2574 1 28.20673523570468 31.998256067096314 20.778068711032613 1 -2 4
698 1 32.573175160888496 26.20162362347849 17.452721363775836 -1 -2 -2
3498 1 32.95478205571938 27.7221577319986 19.56574209981048 0 -2 1
428 1 36.328920379941394 30.83536796399583 18.89019974600214 -1 0 0
4260 1 35.48917007944665 28.3367844576254 19.248372734027555 2 1 -1
3824 1 34.007172668346485 30.098304094550826 19.68623304350409 1 3 3
3396 1 38.10439167572584 29.993496539847335 20.529163081439474 -3 -2 2
5244 2 33.675779037378 28.53759450463507 16.54812615473323 -2 3 0
4052 1 37.2858330195365 28.807149377858575 17.35276594256095 -2 -2 0
2061 1 36.24356939598093 30.655446800693753 63.77650293590969 2 0 1
6220 2 39.01101232897989 30.987351965222587 17.817329339136613 0 2 0
2810 1 40.09684938726183 28.142994711632348 16.488191807238103 3 -3 1
943 1 40.1540843024018 29.025926542872327 19.097961223449268 -5 2 3
5678 2 42.482595741550774 28.25713834704733 17.682916368451377 0 2 0
3021 1 40.20718390446777 31.618851338618597 20.021771561740753 1 -2 0
4054 1 41.5263000581714 27.115736539327962 20.121908670465757 -2 -1 1
2691 1 37.145849121182195 32.677623645004445 20.053621316806638 4 2 1
6025 2 40.03440187700686 28.981402853818985 21.73300989239444 -2 -3 3
4606 2 42.71960265129596 29.486689858079988 20.682256674217008 -1 1 -1
793 1 41.75701248421605 30.915590302846365 18.01290369859425 5 1 4
1023 1 45.6929493362524 29.015486144354334 19.723865109143944 0 -3 3
594 1 44.538172801310864 27.045993280622483 19.46271276537921 -1 2 3
5940 2 45.79165663300036 28.286671688358332 17.276416477211104 -1 3 4
1112 1 44.20725332747705 30.806069870195834 18.578668823668394 1 0 -1
2579 1 44.507832962325686 31.333336457410397 21.45546709098754 -3 -3 -1
6236 2 47.041190360930884 30.782236909040115 20.969852397481105 -3 -2 -1
6013 2 46.043989097436324 31.73387546795854 16.655572523543693 -2 1 0
510 1 47.523553601982286 30.239138003868 18.470368968336356 0 3 2
4968 2 48.374671345239506 27.619408941731493 18.60968870769822 0 1 1
6750 2 52.79057107220421 28.540353906063643 19.239956453796456 3 2 -3
4872 2 52.70457370333995 26.751450253403107 16.524125694148132 -1 -2 0
1206 1 51.485291954164715 30.690715069191135 20.234345326171127 0 -1 -2
4817 2 50.94338186460934 29.703480757161326 17.531898946845097 -2 -1 0
1835 1 49.18934588692815 29.478052277786016 20.392461347802545 -1 -1 0
3638 1 52.94337938497781 31.49405833637754 16.746375762159662 1 0 1
1294 1 48.399657231075736 29.637376785062198 16.29567532571616 -2 -3 -1
394 1 55.342726915837076 28.414246831528583 20.26178294402351 -2 1 -2
5875 2 54.5524811663862 31.012459193532738 19.436595642986997 0 -1 3
461 1 55.120478919685674 27.22980147996969 17.95817107697394 0 0 0
1921 1 57.476724294129035 26.978993457006865 19.377364334818417 1 1 -3
1485 1 58.258506402464185 29.6390648990225 20.071980637232144 3 0 2
630 1 56.4165384258482 29.315196788002424 18.305876323363076 -1 -1 0
2564 1 53.88992366564007 29.275480080143964 16.85738062351365 -2 2 2
5169 2 56.21068006030123 31.46889174547306 16.82751256816995 -4 1 -2
6749 2 57.40249679772268 32.31289044679753 19.53992203724172 -2 -2 1
364 1 58.57098315553734 30.426198358666632 17.478481644738967 -3 2 -1
548 1 59.03093895781453 27.897473491351203 18.000081593973867 1 -1 0
2847 1 63.37222679353947 29.170166794721837 17.45347547740484 2 0 -2
5227 2 60.10160770526039 27.17953745002601 20.292382794718844 -1 1 0
3484 1 60.988591702622045 29.20350057092287 18.697582601093462 0 -2 -2
5312 2 61.57395863195962 31.010956843011535 16.719591163076313 2 0 1
39 1 61.19836906616349 27.341642189134173 17.47577250979004 -1 1 2
1526 1 60.24051184634812 31.285477491494845 19.15095179378301 -1 1 1
1635 1 62.48896514457507 31.055116890961937 19.137954183566997 2 3 0
3928 1 62.52126268654257 28.82495275280086 21.39993580297789 -2 -2 0
31 1 18.983405225256206 30.902904764542697 19.308299223440056 0 1 -1
5389 2 17.203726563455227 34.87579279725985 16.939367278764223 2 1 -3
5618 2 19.889760152620845 33.63827214068707 20.175267837757897 -1 1 -2
2819 1 19.22954779499594 33.29473933687003 17.73164570095097 3 1 1
302 1 17.634424008436653 34.54577235544406 19.77486031208649 1 -1 0
5880 2 19.615171622999064 36.17915822605143 18.16856249546218 0 0 0
3865 1 17.46244525104453 37.026003314376354 20.06643956191038 1 -5 5
1356 1 19.921006433923885 36.792120375149466 20.822131092848394 1 2 0
5556 2 16.294355816190652 32.53686136144668 18.267714891898557 1 0 0
1947 1 17.29430478180739 32.218760408576856 20.86452757250517 -2 1 0
5014 2 21.845396377031655 33.65055194793718 17.332894494577218 0 0 3
3511 1 23.54756177229881 33.21473863253527 20.310712035181282 0 1 -1
3688 1 24.732916457270033 34.43200495065657 18.52973870044923 0 0 2
2718 1 22.293281598963105 35.306397813074675 19.072976526651143 0 1 0
1544 1 26.509910886585878 33.24222142922728 20.091534990348244 1 0 2
3047 1 23.445926432182574 35.81308937843771 16.764899615067794 -1 -2 6
1015 1 21.728776144050656 37.30942992151013 17.950410210558207 -1 0 1
1129 1 24.529613017160592 35.115077908042494 20.55972724488326 2 -2 5
4846 2 26.70345721520242 36.757464330664234 16.374800554039883 0 0 4
5943 2 24.309586458514758 37.22912702585376 18.64775554704449 -1 -1 1
4784 2 30.77391999358656 32.61065094356711 17.352562576875822 -1 3 2
4135 1 26.783587208460407 34.24302429368274 17.449780031499404 1 -1 -1
4385 2 27.372527097338143 36.119565015221795 19.53894826442143 1 -1 -1
1135 1 28.876030862116508 33.53181134885205 18.638535010507862 -1 -4 -1
2599 1 30.86540065285202 34.974236250741875 18.58407326672998 0 1 1
3873 1 29.78693184296783 36.58038686174942 20.460163848458492 0 -2 0
6395 2 32.03108630813001 32.252357004104454 20.19848242260229 -2 1 0
869 1 29.04932077489159 35.13190376370956 16.870436448421863 0 0 2
1622 1 32.476167485672384 35.448108585991555 20.51919829369475 5 2 -1
4236 1 32.71302626982491 36.39786220713384 18.027171137446405 2 -1 -3
6480 2 33.98787488362362 31.73662534933007 17.078892783471197 -2 1 -3
4795 2 34.48932596522306 33.72531396599488 20.460775423840396 1 0 1
2815 1 33.355533643335946 34.05894081283024 18.08711100355865 -1 1 -1
4767 2 35.39079474474194 35.22245042361719 16.501606808217776 0 1 3
6156 2 35.12869843783352 36.7913231322994 19.78789627550038 1 0 -1
1881 1 36.898820476453906 32.90595549984012 17.199979489719723 2 -1 -1
5181 2 32.366131823912205 35.206281001409806 63.90125733586954 3 1 -1
403 1 37.0678178291281 34.737916501840544 18.861198531950365 0 -1 3
6101 2 39.73272450464381 34.24660674182141 19.298224017149042 1 2 1
1559 1 41.43500864562763 33.39128065604549 17.62526301894424 -1 1 -3
761 1 42.59672917552484 35.63137704419353 18.533096022007765 -1 -1 0
6535 2 42.52035664613308 32.863464993368524 20.06581968565552 -2 -2 0
1679 1 40.31229920005091 36.24175351647196 17.83216568802836 3 0 1
140 1 40.904661680247 36.84665564854959 19.81505497649092 -4 0 -4
1216 1 37.30699987127977 37.5003777896071 17.437574207491718 0 0 1
2094 1 41.739343676647046 35.669877306893184 16.04415138384629 -1 -4 2
5228 2 38.61403362117598 34.805686163365564 16.294071489353275 -1 4 0
2214 1 46.30306603686186 32.68140780329358 18.96566187518336 -4 2 5
2790 1 44.102115031768164 33.48411612042028 18.16075506625774 1 -2 -1
204 1 46.11936243277515 34.384936482876114 16.59286145975462 0 0 -2
355 1 47.839093705498485 34.76678263496279 18.80946270929021 -1 -2 -1
4960 2 45.480418542687595 34.11019045860368 20.873117584272777 1 0 1
1971 1 44.072546865866045 36.014739955339685 16.316631273380477 -4 0 4
5942 2 43.180450415618424 36.159004031295815 20.958353648438614 0 0 4
4014 1 45.17066992804505 35.87702945820253 18.45792882663807 0 0 5
5701 2 47.63916315431085 36.97708721636993 16.75307297631184 2 -2 0
4871 2 47.249736811796126 36.84102291730433 20.36017144030871 -3 0 2
725 1 49.37333954482665 32.02401015309408 19.897960224967466 1 -2 -5
5658 2 49.14502003693796 32.27237389762129 17.331569643780437 1 -3 -2
1351 1 52.288766161944466 32.55784949694359 19.058008291285706 3 -3 1
3344 1 48.009905055682346 33.72838686014075 20.775438105075075 6 -1 -2
1564 1 49.467715474831074 35.76030914535062 21.520587493476434 -4 -2 0
4668 2 50.66627484274072 34.87000606427165 19.223904552312806 0 -1 -1
3960 1 51.76503493693347 33.91348770773345 16.882314600839823 -2 2 -1
3267 1 50.00468053501324 37.238282962073086 18.604303445025696 -2 -4 1
3575 1 49.417420839455254 35.12623996280219 16.953063411053144 -2 2 2
4128 1 51.54258368773064 36.23063320502539 16.410078586673848 0 0 -1
2440 1 52.09178019591404 36.15264311250874 21.042306156687353 1 0 1
6370 2 54.092403374093564 33.77163636624531 20.71234044994679 -1 -3 3
3605 1 52.269374853926195 37.248155120579 18.988987993911834 0 1 2
3661 1 53.226428407548525 35.22348154783724 18.617262752450888 -1 1 -1
1280 1 54.27747937328236 33.14134058538036 17.976137513206396 -3 0 -4
6308 2 57.043038542529324 34.48836246440194 16.790032484660237 0 2 1
2689 1 55.762052957179314 34.638852000736115 19.114204644432533 3 1 2
783 1 58.896346635671655 34.78399088086318 19.45540375854985 -2 1 4
4264 1 55.38530739156945 36.986671988877895 16.713104086845046 2 1 -1
4323 2 54.18918106589541 34.96238201995595 63.79434791676274 2 1 0
149 1 59.11639704982498 32.91178491282672 17.577229883659466 1 1 3
2985 1 63.57153116881722 35.627958530589524 18.914037529091157 1 -3 1
4095 1 60.62223733269755 36.356163507036236 19.037722158173125 2 1 -1
3627 1 62.76810585572531 34.52187174849547 16.238434327738 -5 -3 4
6637 2 61.29842091070154 33.637851353767374 18.560093809459445 -3 2 -2
6139 2 60.19318421187497 35.55634966993256 16.29836713985147 -2 1 0
1890 1 62.456516210525734 36.79568874741534 16.78581007315581 -2 4 0
6691 2 62.86220504552887 37.80280413080526 20.118936486984346 -2 0 1
19 1 63.20700920923088 33.347105302794354 20.637106457068086 0 -1 2
1335 1 61.4680807555337 35.29143508546515 20.620437678878755 0 2 2
5305 2 16.756366569169387 37.998729269139915 17.81590439204454 2 1 -3
3746 1 19.436053218586387 39.22762600411869 20.619393208585752 -2 0 0
1457 1 19.856707664811903 38.76144977893049 18.324610902035435 1 1 -3
4143 1 17.984466404344317 39.64521887299811 16.306730413791453 -3 0 0
624 1 20.52672558378522 41.276568481470484 20.072287504258387 1 0 1
5045 2 20.053216217867053 41.28471563579188 17.311425115028737 1 0 0
5761 2 17.974335943505153 40.55191409326772 19.05868706973807 0 0 4
5578 2 17.258500867533932 42.45439507324114 16.288708460901812 -1 -3 0
2987 1 16.801905300238875 39.188747769898235 20.810812164663872 1 0 0
2126 1 63.75770973314025 42.1638425775988 20.94041146161162 -1 -2 -3
4397 2 21.941795047706222 38.38185728514473 20.31374860758826 2 3 -1
6571 2 24.68769954497052 40.04533394459938 18.99382144815913 1 2 -1
575 1 22.1956292821479 40.06020505603479 17.776655368602416 0 1 4
1121 1 22.730047623354242 40.83260805476154 21.334414057403286 1 -1 1
5535 2 22.79752445321396 42.64554137483942 19.32572403463832 -4 -2 0
3335 1 24.603920396990354 41.32038244028053 16.793742116065317 2 -1 2
6371 2 23.74906803201302 38.521954700309266 63.76771560142108 2 -2 -2
96 1 26.572060000862432 39.52345087697016 16.84244224333825 -3 1 4
1555 1 25.441308824706525 42.98056322333935 18.902740055645076 -3 2 -3
1114 1 27.240217872024676 38.62029975799905 18.849978378831977 4 1 -2
5040 2 29.63014604562686 37.685798929165045 17.703067885489464 4 2 -2
845 1 31.617819970076976 39.57386970019627 17.8053949436252 -3 -2 0
967 1 29.584440161676927 39.32235171818621 20.09900245259691 2 -3 0
4624 2 27.735508035621322 41.508623275021854 17.90902271807523 1 -1 5
5873 2 30.768493881549617 41.85209664190417 19.329021130465843 2 -2 -2
5690 2 30.20394384991036 41.34991423479544 63.80252887423005 -1 0 1
4254 1 28.718727908300295 39.205954816994016 63.78085211237793 -2 -3 0
3019 1 27.048495484514625 41.400196564437735 63.387289368880865 2 -1 -2
4545 2 32.04576265674375 38.17278410733115 19.905721465917157 0 0 4
3633 1 33.34298045342621 37.96763212226291 16.88820461258086 0 1 -1
495 1 33.8470503225902 39.836716458945745 19.5685596659308 -1 -2 2
5125 2 35.3175936861808 39.2109388975378 17.42654341335969 1 -2 1
3754 1 36.25576520769839 39.00371924453915 20.259548071494 2 -2 -4
6654 2 33.15419688211873 41.801531293732296 17.52914187982765 -1 -2 0
3443 1 35.77551540006029 41.27775738791793 18.97397525696558 -2 2 -2
6632 2 36.41986894417461 42.10325200487206 16.611777486201017 1 0 0
1838 1 33.56148840592657 42.18275097211628 20.293228702084743 -3 2 2
4148 1 33.302974396362416 40.02824732480511 63.65573046729292 0 1 3
5162 2 38.33131500124041 37.48380016009476 19.809426680650482 -2 0 0
3072 1 37.827377712609234 40.27405606847641 18.247891094629644 -1 1 0
3160 1 40.59029011542315 39.048755039854946 18.403905982082108 -1 -2 0
2724 1 41.758709046267356 40.37822846580251 16.565284823186918 1 3 2
2387 1 40.56198613903283 38.69323361959731 20.897720899902648 -2 -2 1
5570 2 38.84880870020298 40.73953329385195 20.55291740386862 0 1 1
5222 2 40.85604149093355 41.73927329108532 19.06811938784412 1 0 0
2496 1 42.72306399577033 39.4255442418845 20.2264563436658 0 2 2
5247 2 43.19419860603499 38.15622522848848 17.943615508718118 1 -3 -1
2658 1 44.83829767076858 38.15096878077231 20.58468327035405 0 1 3
3788 1 46.15813209737084 38.51665958327884 18.510730098143775 0 2 0
3298 1 43.674493030567106 41.20024170202831 20.08609585108144 -1 0 0
6162 2 44.586431922066524 40.50253445477582 17.63355572268606 0 2 -4
5344 2 46.60353730816363 41.047373196111664 19.79275094707311 0 0 1
4251 1 47.43101559040044 42.69144775524047 17.2515509460126 3 1 -1
176 1 47.74996257815207 39.93366117544866 16.909480604196034 4 0 2
741 1 47.25196191928423 39.14518499612571 21.345056663934173 0 -2 2
328 1 48.70675641910237 39.35307967891133 18.896868238930626 0 1 0
6497 2 51.88003509742768 39.72006869083587 18.87341051824407 1 1 2
4313 1 53.536609477126206 38.43931269016253 17.253243721643837 0 1 -2
5800 2 50.11431716645317 41.84359545877365 17.93403566433231 -4 0 1
3208 1 49.08408713277659 40.83801483201296 20.87625136222959 2 1 1
5707 2 52.418433394386334 40.98717398519725 16.13522087853346 0 1 -2
4877 2 51.307026788810965 42.39103374934358 20.563072503106717 -1 -2 -1
6515 2 57.445446095150395 36.8436170371603 18.35155723055915 -3 -1 1
5318 2 54.545165693297015 37.050243441393775 19.76033992272727 2 -2 2
5464 2 55.59241106999464 39.82007948540101 16.25775653058759 -4 -2 1
4227 1 55.14013112084098 39.98392205461232 18.807058580635307 -2 0 2
4276 1 57.84959559729088 39.938891553758545 18.27071870688991 0 0 2
977 1 53.797072234987844 42.06086941196952 18.612573622393676 -3 1 -1
6316 2 56.42125440680643 41.75286526570172 20.54619191048175 -2 0 1
1647 1 58.33732863783575 40.619318541840855 63.956798632614706 2 3 -2
2046 1 54.582109348013695 42.51299384503699 16.069230188489325 3 5 0
3012 1 59.017675361452824 40.91712671583689 21.1156581606175 3 -2 5
2479 1 63.442532514249194 40.442800019778275 16.863817087819754 1 2 2
2647 1 59.49787030172844 38.28814652105408 17.392577344257226 0 -2 0
4963 2 59.80095557834238 38.811673193284534 19.935829151752674 -1 -4 1
2521 1 61.94657269010984 38.977519140013015 17.900512048822723 2 -2 -2
4081 1 63.16027641147046 40.51202047477213 19.55485362706365 -1 -2 0
6042 2 60.46375315075271 41.264670450704386 18.182444085741498 2 0 4
2550 1 63.004881841889585 42.77579370747876 18.299093400270976 1 -1 -4
4118 1 59.118088282870865 42.88255731055257 16.835429343145158 2 1 1
649 1 16.21600458501448 44.28662992372364 19.761718237893884 -1 -2 -2
6265 2 18.42166044091274 43.367319446293905 19.379645224101587 -3 -2 1
3363 1 19.812612855780422 43.8997060386162 16.730701823537828 2 3 0
5151 2 19.232758506926924 47.93729333912631 20.03546657516381 -2 0 -1
5748 2 18.23922612944865 46.01179648416776 17.687344660963703 2 1 0
1643 1 16.644504945427805 46.60741994767592 20.18671022346321 -1 2 3
3001 1 20.62508276458498 47.42906410459618 17.29303034077126 -1 -2 -2
6405 2 21.117417395548237 45.298256326139814 18.859981004762062 1 -1 0
4033 1 18.149758614204767 48.20722770027705 16.48272866415893 3 -1 1
3259 1 23.606181961051988 43.35917543925194 21.621865726154528 -2 4 1
5844 2 23.317769624377842 46.04463436866391 21.039251832773925 0 0 2
3726 1 22.683429586491656 45.750336794282454 16.859200737682762 3 3 2
2668 1 23.94371573484849 43.88792821671223 17.172208752843126 0 2 -3
6531 2 26.101684431263237 44.54996138567444 20.711602607689713 3 2 -2