ITEM: TIMESTEP
121300000
ITEM: NUMBER OF ATOMS
6750
ITEM: BOX BOUNDS pp pp pp
1.6044167197536517e+01 6.3955832802344659e+01
1.6044167197536517e+01 6.3955832802344659e+01
1.6044167197536517e+01 6.3955832802344659e+01
ITEM: ATOMS id type x y z
2567 1 17.263 18.9987 20.9739
4116 1 20.5694 18.0887 17.8937
6266 2 18.1708 19.3195 18.4775
5409 2 19.6569 17.5166 20.7343
288 1 17.4582 16.9254 18.9038
1675 1 18.7275 21.2425 20.3086
5496 2 18.2052 16.8965 16.4045
5545 2 21.0353 19.69 19.9314
1239 1 23.4612 19.9405 20.7064
5859 2 24.8759 18.6271 18.3413
61 1 22.6298 19.3224 16.8293
301 1 22.6517 17.271 19.8951
235 1 24.7901 17.9831 21.4249
5165 2 24.841 20.8056 63.9546
4840 2 26.6727 20.5183 20.2878
3218 1 27.294 20.3492 17.3359
6006 2 28.6246 17.9244 17.8483
3361 1 30.2201 19.8372 18.2339
799 1 28.6571 18.3723 20.5044
4102 1 30.9866 17.6658 19.5334
5640 2 30.1266 20.3183 21.0573
4962 2 31.7806 17.5099 16.3338
2306 1 26.9465 16.8502 19.9475
3130 1 32.4722 19.3323 18.5329
3010 1 36.5941 19.1192 17.1634
6269 2 35.5025 20.8127 21.2417
4581 2 34.91 17.6059 17.8572
5085 2 32.7708 18.6697 20.9745
3248 1 35.8785 18.1612 20.4103
1915 1 36.8673 20.2145 19.0026
5350 2 34.4096 20.8965 18.3653
4065 1 32.5173 21.3287 20.5582
343 1 37.6468 16.3271 21.2177
6665 2 37.8841 17.122 18.857
875 1 40.4111 17.7275 19.4143
5990 2 41.6864 19.8368 20.8291
365 1 39.9864 19.7767 18.1128
5265 2 42.2464 17.0414 17.3133
60 1 42.4658 19.4448 18.3334
5706 2 38.3541 19.4802 20.8005
2531 1 42.614 17.0343 20.0505
3876 1 44.7333 16.5262 17.9144
4860 2 44.8896 19.0618 16.1506
5007 2 46.7602 16.5673 19.7439
2513 1 47.2413 17.0436 16.8405
4451 2 44.7145 19.5114 19.886
2155 1 46.5386 19.206 18.212
3619 1 44.8006 16.5049 21.2517
193 1 47.4873 19.5087 20.789
4547 2 48.1555 21.2209 18.7984
5301 2 51.0939 18.7833 19.1188
537 1 49.1159 17.6511 20.3825
4292 1 48.8728 18.5748 17.8708
3842 1 51.068 17.8261 16.7826
3762 1 52.8587 19.9015 17.1919
2331 1 50.2773 20.505 16.7175
2075 1 53.0063 20.5275 20.3125
4569 2 50.1481 20.7304 21.1692
1215 1 54.9491 20.2974 18.4434
5922 2 53.8853 17.9928 19.9095
6518 2 56.6759 18.4124 19.1958
6361 2 54.0372 17.9894 16.4074
4969 2 55.4282 20.9139 63.9512
1218 1 58.1843 16.4001 18.0313
1166 1 56.9716 18.3502 16.6097
4161 1 56.9866 21.601 19.9934
3872 1 58.1019 20.7024 17.4127
3377 1 63.1729 16.8712 17.2716
955 1 63.4053 21.2176 16.9704
2588 1 59.4508 17.4163 20.1965
500 1 63.5275 18.8217 18.7558
4608 2 59.3439 20.821 19.9092
3187 1 61.1305 18.5524 19.6296
2651 1 60.5743 16.681 17.8779
2659 1 58.9675 18.7488 18.0323
5138 2 62.8991 16.3937 19.7256
6561 2 61.6441 18.982 16.6801
2489 1 16.2388 21.4036 19.6444
536 1 20.1554 21.4602 18.0167
5923 2 17.9308 23.6851 20.1145
4753 2 17.4651 25.4336 16.9557
5498 2 19.8005 25.84 18.9746
5351 2 17.666 22.2516 17.2733
3271 1 20.4785 23.2813 20.1717
5621 2 21.3107 23.534 17.335
3154 1 18.5565 26.1394 21.5202
5700 2 23.3563 21.538 18.5729
3748 1 22.9596 24.2135 19.7773
1887 1 24.0942 24.0409 17.4056
4750 2 25.745 24.8322 19.0623
130 1 24.9837 22.5182 20.7029
1190 1 26.3691 26.1472 17.2242
6366 2 26.6697 23.5156 64.0315
2613 1 26.2288 22.065 18.2827
192 1 25.1728 27.2706 19.5606
5137 2 23.1232 26.4831 17.8486
152 1 22.0015 21.7827 63.7174
426 1 28.8554 21.3803 19.0111
5615 2 29.1561 21.6845 16.5212
4370 2 28.5031 24.0373 18.4308
6373 2 31.6576 25.227 18.8143
1119 1 29.7598 25.7708 20.7992
2735 1 30.1703 22.8186 20.3555
1730 1 27.6798 22.6388 20.8459
4800 2 31.6495 22.2433 18.0419
3411 1 28.6212 26.3011 17.1006
6451 2 32.1246 24.184 21.6381
2390 1 34.196 25.7973 20.1622
6097 2 36.4589 22.9715 18.5487
1227 1 34.1643 23.469 17.6104
2908 1 34.1508 23.397 19.9688
2611 1 38.8576 21.7933 19.2743
698 1 35.5298 25.3541 17.7906
3594 1 36.0979 24.9614 21.0053
3652 1 31.9797 26.9219 20.8423
3554 1 40.1002 21.9206 21.3789
4260 1 41.5065 25.2797 17.9041
4201 1 41.8527 24.2297 20.4648
4358 2 41.1793 22.3446 18.3067
4378 2 39.0978 24.8755 18.8058
902 1 38.3471 25.9104 21.2641
6362 2 38.2498 21.0891 16.3979
2091 1 39.7271 24.0962 16.5399
3579 1 43.7787 21.8907 17.362
4506 2 44.0152 24.577 18.5197
1787 1 45.369 21.9903 18.971
981 1 43.4298 21.9092 20.0495
168 1 46.3938 21.3442 16.6672
6482 2 45.5405 23.6961 16.1753
5741 2 47.1767 23.9939 18.6973
2148 1 44.5833 24.1613 21.0218
5398 2 45.9528 26.5587 19.9665
6597 2 45.6869 26.5583 16.5397
6383 2 46.3087 21.9052 21.4975
3026 1 51.1164 21.6393 18.7886
2167 1 48.6191 26.2087 20.2606
2463 1 52.3248 24.6999 17.9885
4023 1 49.9681 23.698 18.778
6043 2 52.2377 23.2777 20.4106
4636 2 49.9786 25.548 17.039
2141 1 48.7556 23.3058 21.0115
5272 2 51.5254 22.9434 16.049
164 1 50.9318 25.8307 20.1709
3470 1 53.5263 22.103 18.0239
2631 1 53.1809 26.9468 19.5734
4057 1 48.9755 22.9067 16.7498
3133 1 54.0787 24.5162 19.0449
6049 2 56.2485 23.5279 17.8995
461 1 58.2479 25.6042 19.6623
3213 1 57.8744 26.1023 17.2526
1414 1 54.825 22.3152 20.0959
340 1 56.9701 23.8462 20.3902
1144 1 53.9532 23.9912 16.0673
4872 2 54.1105 27.0437 16.3747
6750 2 55.7074 26.9764 19.1361
2469 1 62.1381 20.8776 18.5473
3173 1 59.0641 24.4892 16.2163
5858 2 63.833 26.1665 19.6491
1181 1 58.9031 23.2134 18.6851
1568 1 61.4966 22.6195 19.6498
1981 1 63.1058 23.5378 18.8477
4674 2 60.6967 25.0399 18.4585
3455 1 62.6775 26.0347 16.9722
4558 2 60.2722 21.8318 16.7068
1830 1 61.8978 24.9335 21.007
2824 1 63.4399 22.9634 21.5444
1952 1 60.971 25.4289 62.8366
2966 1 18.1532 27.7158 19.0664
5220 2 20.9539 29.1945 18.397
6679 2 17.7219 30.6843 18.1346
3316 1 20.2532 31.4642 17.0244
1311 1 18.687 28.0091 16.8297
2847 1 16.3199 28.1434 17.1891
302 1 20.1498 31.6723 19.4593
5479 2 18.5053 29.718 21.1711
300 1 20.3731 27.7071 20.9438
1396 1 20.9992 27.007 16.5797
3828 1 22.7971 27.1114 20.7608
6622 2 25.5669 28.606 17.0056
3620 1 22.6806 28.9929 15.9955
2158 1 23.6037 29.3771 18.6439
1063 1 26.3468 30.0584 18.8941
31 1 22.4761 31.5346 18.2747
6312 2 24.4467 31.8504 20.2956
2565 1 24.8012 31.6466 17.4267
406 1 24.6455 29.2186 20.8102
4747 2 21.86 29.9644 21.197
3111 1 27.2309 32.2703 21.543
770 1 26.877 30.7719 16.2554
6124 2 28.0146 27.5788 19.5338
1712 1 30.4661 27.8289 18.5881
2746 1 28.5307 29.8668 18.6312
2574 1 29.8336 31.8696 20.2584
5771 2 30.2657 31.5211 17.4026
5896 2 29.8504 28.5258 21.2672
4904 2 27.1964 32.3508 18.7027
4933 2 31.9642 29.7551 19.262
440 1 27.2922 29.833 20.9628
1740 1 31.5852 31.0225 21.8654
3622 1 33.3246 30.9983 17.395
593 1 34.3516 28.3682 20.6752
4650 2 33.777 27.6512 17.5027
4566 2 34.0267 31.2694 20.8686
3498 1 35.2441 30.2999 18.439
5244 2 36.7848 27.2345 19.0727
4052 1 36.6518 28.8608 16.97
2871 1 36.6549 29.8194 20.4281
6284 2 40.8538 26.7894 20.5857
6220 2 38.2315 30.5003 18.2438
626 1 38.7953 28.4351 20.2865
4054 1 40.7009 31.5577 17.3585
2810 1 39.7641 27.3845 18.1055
943 1 40.87 29.4238 19.4091
3396 1 38.9095 31.4006 20.6574
5678 2 42.1465 28.3876 17.7377
1094 1 43.1916 26.3731 16.4177
2219 1 43.2743 27.3061 20.2242
1112 1 43.3541 30.9951 18.2459
1023 1 45.1598 28.652 18.3859
18 1 43.027 29.8506 20.3361
2214 1 44.0028 31.9773 20.5023
510 1 45.7039 30.6217 18.4967
594 1 47.5942 27.3555 18.0732
1331 1 44.9702 31.5098 16.0416
2332 1 44.1672 29.0828 16.2419
5940 2 46.9753 29.6612 16.221
3383 1 48.0092 28.6453 20.457
4150 1 51.8138 27.2316 17.261
713 1 49.8727 28.4466 16.3006
1294 1 52.8604 29.3188 18.2457
4968 2 50.4347 28.4788 19.0944
725 1 49.7852 30.495 20.851
1206 1 52.6571 31.4117 20.0415
3960 1 48.5093 30.1212 18.4921
4323 2 51.0704 31.1676 17.8673
1835 1 52.7123 28.7715 20.7203
1351 1 54.9962 29.6485 17.044
3638 1 53.5833 31.5206 17.8037
5875 2 55.5902 30.0758 19.5914
630 1 57.4509 27.924 20.8188
6263 2 57.4159 28.7278 17.251
1485 1 58.385 30.2902 19.3488
548 1 56.4075 31.7306 17.6112
1629 1 58.3783 31.1824 16.8418
3387 1 63.9729 29.1396 19.8057
5050 2 59.5702 27.8719 19.4004
3484 1 62.7876 30.1265 18.0667
39 1 62.0151 28.0879 18.5409
3185 1 60.3381 30.0086 17.5502
5468 2 62.2558 29.4185 63.5367
5227 2 61.2212 30.1609 20.4513
2819 1 63.6497 31.3289 20.6371
3928 1 61.7916 27.7483 21.1558
5499 2 60.2561 27.3531 16.51
95 1 17.9397 32.5846 20.2868
1947 1 17.085 35.109 19.4864
5014 2 20.932 33.8408 18.2871
5472 2 17.2373 35.2663 16.2575
1266 1 16.1104 37.0741 19.1698
1356 1 18.0875 37.4258 20.6111
1903 1 18.2617 33.5519 17.9803
2718 1 21.6315 35.1331 20.3798
1015 1 22.3256 36.4595 18.4013
3688 1 23.7024 34.1378 18.9778
1544 1 26.2696 34.3226 20.4425
5943 2 25.1672 36.4172 19.3661
3511 1 21.9019 32.6996 20.6086
4135 1 22.856 34.8289 16.7467
6301 2 25.3923 34.0966 16.8746
869 1 26.6185 37.3496 17.4128
1129 1 23.8954 34.38 21.6086
1135 1 27.5226 35.1494 18.2273
635 1 31.7657 32.7143 19.2768
1452 1 29.8694 34.1127 17.5825
2599 1 29.3248 36.7721 18.0314
5538 2 29.0095 34.4696 20.5481
5181 2 31.7953 35.4685 18.8023
4385 2 28.1034 37.5242 20.1533
637 1 31.5249 35.4112 63.7546
428 1 36.4606 32.3551 19.7315
1272 1 32.2471 33.2858 16.8669
3824 1 34.0448 33.4369 18.9204
2815 1 36.0228 34.733 18.9034
2374 1 34.5872 36.2105 19.9051
4767 2 34.1577 35.2996 16.707
6480 2 35.392 32.4465 16.7594
4236 1 33.0955 37.39 18.0115
372 1 34.7649 33.8716 21.2871
4606 2 41.3046 32.3843 19.6635
228 1 36.6197 34.8301 16.2864
403 1 36.2809 36.9267 17.5497
793 1 40.1293 34.0342 17.5983
1881 1 38.6377 33.7335 19.6042
2691 1 38.3555 35.6698 18.1642
761 1 40.3708 38.303 17.5859
6535 2 41.0804 35.8744 19.0935
4795 2 37.1565 35.3585 21.3547
6101 2 39.6656 35.9582 63.5479
3908 1 37.9696 32.8399 17.5451
6236 2 46.7154 31.9183 20.6572
1559 1 42.496 33.6448 17.3895
4960 2 45.1154 33.3713 18.2792
4014 1 43.09 35.9364 16.874
3344 1 47.0513 35.1118 16.6506
2790 1 43.6719 36.3994 20.9733
5701 2 45.2063 36.3956 18.8202
5658 2 47.9384 32.4092 17.5709
1394 1 45.6337 34.7373 20.9171
1914 1 43.3139 34.4871 20.0556
2579 1 47.549 34.4732 19.3552
1308 1 46.8644 37.5354 16.9067
2857 1 49.6945 32.7461 19.8925
4668 2 50.6795 36.1745 19.5494
355 1 49.0021 36.5015 17.7103
364 1 51.4929 35.4067 16.89
1280 1 52.1826 33.6203 17.9932
283 1 50.0402 34.1521 18.1303
3575 1 52.6827 37.3631 17.6039
3267 1 47.9748 37.776 19.3629
2440 1 52.8102 37.1744 21.2625
3661 1 53.3227 35.587 18.9742
6749 2 57.4155 32.8438 19.8079
6308 2 55.0598 34.2442 17.1078
38 1 58.5172 33.6237 17.1573
4264 1 54.8906 36.8785 17.1582
2689 1 56.3953 35.5654 19.4372
5666 2 57.7536 36.28 16.9578
1567 1 54.4487 33.1618 19.3655
783 1 59.1798 35.2236 19.2359
6370 2 54.5518 35.1669 21.4371
1928 1 56.7446 37.2839 21.5363
3637 1 56.9477 33.7652 63.1367
2844 1 16.2919 32.0817 16.2404
2189 1 61.7422 31.79 16.7141
5389 2 63.6307 32.9185 18.4949
5556 2 60.4321 32.6999 18.9267
3627 1 60.9252 35.0604 16.7032
2647 1 62.6735 36.7054 16.8552
6637 2 61.9162 35.8199 19.7025
19 1 62.6813 33.4022 20.8865
5880 2 19.5969 36.4366 18.1673
624 1 18.8909 39.2638 18.5121
1890 1 17.1411 40.2903 17.0997
5578 2 19.5726 41.921 17.5675
4397 2 20.8867 38.766 20.157
2792 1 16.7518 37.963 17.0364
6265 2 19.1885 41.4432 20.7424
5305 2 16.7106 39.7439 20.107
3182 1 16.3281 42.7597 20.9196
4525 2 21.196 39.0379 17.0132
1121 1 21.8498 41.0222 19.0689
6371 2 24.2083 37.4811 16.6095
575 1 23.4947 38.9071 19.0799
6571 2 25.1703 41.2566 19.8068
3419 1 25.7235 39.2087 18.3932
3019 1 23.6889 40.3999 16.9805
2557 1 25.3901 38.6028 20.7707
2668 1 26.5239 41.5412 17.485
845 1 30.3841 38.6917 19.1245
1114 1 28.1898 39.7026 18.1654
4374 2 27.7974 40.6925 20.4821
4624 2 30.9718 41.0849 19.7323
4254 1 30.6939 40.7514 17.1344
4745 2 31.2269 38.3619 16.5692
3985 1 28.9993 42.5759 18.4282
5830 2 35.2234 38.7642 18.8647
1630 1 33.1504 40.1525 18.0051
4545 2 32.7699 38.771 20.4558
5125 2 34.1121 41.4969 20.2377
299 1 36.8001 40.1341 20.7101
1193 1 35.0728 41.4802 17.2594
5288 2 32.6056 42.6487 17.0927
81 1 34.3877 38.5186 16.2501
137 1 37.2657 42.5032 21.4872
1679 1 40.8534 40.0601 19.2132
5677 2 38.0697 40.4047 18.357
1216 1 38.3728 38.062 16.7939
6156 2 38.1942 37.6889 19.9399
5162 2 41.5109 38.0626 21.0404
3160 1 40.9951 42.2785 18.9211
2724 1 40.1382 40.696 16.8342
3298 1 43.1593 40.5259 20.5243
3788 1 46.3103 37.468 20.9424
6162 2 43.1388 41.3058 17.8602
140 1 42.9157 38.3042 18.4927
5344 2 45.279 39.3993 19.6875
4251 1 46.0031 41.7693 18.3105
758 1 44.6386 38.7766 16.8619
1211 1 44.225 42.7171 20.2943
176 1 46.7044 39.9584 17.4515
328 1 48.7469 40.2012 19.4195
1564 1 52.2786 38.9423 19.3482
202 1 49.4861 42.3728 18.2844
4684 2 50.2118 38.8083 17.7417
6497 2 51.3184 41.3345 20.2059
3605 1 51.924 40.9224 17.4228
977 1 53.691 41.0234 19.6033
4381 2 49.881 38.6711 21.5011
3357 1 52.9626 39.6557 21.8475
4095 1 57.9818 37.6003 19.5742
4128 1 54.0782 39.3615 17.7429
5318 2 54.8108 38.0164 19.64
6515 2 56.9278 40.2292 19.3691
5464 2 55.3754 41.8004 17.7248
822 1 57.9616 41.0695 16.8515
4313 1 56.4054 39.0173 17.1485
4081 1 60.1617 37.2537 63.9607
1647 1 60.3321 37.3108 18.526
2985 1 62.2164 38.4269 20.2418
4118 1 59.1999 39.2882 17.8544
6270 2 62.263 39.2641 17.4497
6691 2 59.8248 39.4901 20.8466
2310 1 62.3023 41.0963 19.593
4963 2 59.6442 42.2275 18.8185
2550 1 62.6189 42.0182 16.9503
2601 1 61.8291 42.6655 21.3632
5151 2 18.9753 46.9939 19.2959
3363 1 18.3257 44.4424 17.2048
6405 2 21.002 44.274 18.4051
649 1 18.571 44.1806 19.6495
2126 1 20.3096 44.0841 21.1194
5969 2 16.8608 42.4386 18.5074
1457 1 17.4212 42.0519 63.7248
1643 1 16.6284 45.7804 18.7045
3822 1 23.1727 42.6841 17.6621
3335 1 25.3182 43.7686 18.1961
6531 2 23.7586 46.1631 17.7111
3671 1 21.7299 46.0127 20.3279
2108 1 26.138 46.1609 19.0487
993 1 27.2011 42.977 20.1113
6633 2 23.4469 43.9324 20.3796
3496 1 21.764 47.5156 16.4773
4162 1 26.2061 47.9882 17.1111
5589 2 24.2391 47.3452 20.7973
1838 1 29.5545 43.0965 21.0726
3284 1 30.1736 43.813 17.0001
5180 2 27.4966 44.6706 16.9151
5873 2 28.9451 45.1667 19.8972
4945 2 29.769 46.6596 16.987
3633 1 31.3584 43.9841 19.1858
3046 1 30.1506 47.4665 20.6736
4202 1 28.3601 47.6122 19.0055
3280 1 27.1977 47.042 20.9836
1925 1 36.3394 42.4265 19.2529
6654 2 32.2653 46.7628 19.1152
3754 1 31.9569 43.5169 21.3839
1690 1 34.8305 46.831 17.044
6632 2 34.3715 44.4716 18.7131
5246 2 34.9963 47.1832 19.8332
1075 1 36.6468 45.1561 20.7392
3369 1 37.1519 45.6009 18.4843
2660 1 35.8219 43.9304 16.6506
1868 1 33.9344 43.1926 63.0627
1926 1 32.0943 47.9041 16.3612
5222 2 38.8804 43.3086 19.5432
4854 2 38.6587 46.8324 20.3844
2902 1 39.9068 45.1015 17.5821
2351 1 40.9436 44.7534 20.6194
5891 2 41.9739 46.9849 19.0851
238 1 39.1904 47.4789 17.5185
4861 2 38.2621 42.9515 16.6361
2429 1 42.4602 44.0883 18.7847
6593 2 41.3561 43.2339 16.3626
5800 2 46.7577 42.8882 20.6358
5775 2 44.9085 45.1955 19.373
1711 1 48.22 45.9119 20.3729
5644 2 47.4648 44.319 17.7055
4183 1 45.5122 46.4853 17.2435
1194 1 44.6215 43.4636 17.5429
520 1 46.3887 47.4367 19.1915
5291 2 43.9485 47.9385 20.6389
3391 1 43.862 48.0932 18.0838
6339 2 43.2486 45.4994 16.167
6146 2 48.2808 47.0946 17.6265
592 1 49.2442 43.9393 20.0168
2343 1 50.3899 45.8935 19.0916
5914 2 52.5582 46.5936 17.4899
29 1 52.5978 45.8758 20.1188
4834 2 52.5511 43.5338 19.0549
2413 1 49.8701 44.9759 16.7367
3358 1 49.1854 48.4341 19.7038
3012 1 57.9315 42.2578 21.0621
2609 1 55.0032 44.6388 18.2989
6316 2 55.3483 43.1942 20.3924
608 1 57.0604 43.4572 18.3891
5013 2 55.2358 46.7562 19.6544
4093 1 57.9108 47.1765 19.1481
4791 2 57.979 45.1545 20.6934
567 1 55.1015 47.6066 17.1165
5025 2 56.9172 45.7702 16.986
2546 1 56.8187 48.1869 21.0083
2046 1 53.6789 43.6698 16.5877
4276 1 58.6034 43.1863 16.3041
2163 1 53.6175 44.6862 22.0207
2271 1 59.5002 44.9612 18.2625
6547 2 62.2628 44.1477 18.7279
4017 1 61.8008 46.0428 17.277
604 1 60.4897 46.5434 19.7606
2409 1 59.4406 47.214 17.4071
3800 1 63.0608 47.0163 19.5617
3495 1 63.887 44.3004 16.4331
798 1 60.9547 43.6765 16.3062
2994 1 60.0172 43.7427 20.9229
386 1 19.5972 48.4287 16.9994
3654 1 16.9519 48.4752 20.327
3782 1 16.9545 48.4613 18.149
5095 2 19.3411 50.2602 19.2636
451 1 16.8204 52.9857 18.7715
3571 1 18.799 52.9876 20.334
1344 1 20.7627 51.6081 21.4018
4595 2 17.4873 50.3895 16.9828
6151 2 21.856 50.3773 17.4727
1555 1 21.2936 48.212 18.8174
4252 1 21.8653 52.366 19.1055
374 1 24.5801 52.1909 16.209
2289 1 23.9462 49.0935 18.5739
5184 2 24.625 51.8354 18.9591
1188 1 25.8618 50.643 17.06
4467 2 26.4403 49.2146 19.3801
10 1 26.4652 53.4254 17.1215
2353 1 28.2984 51.9417 16.3286
2060 1 27.6713 51.7604 18.4903
5757 2 29.3756 49.9438 20.2769
6453 2 30.6453 51.3831 17.4781
3269 1 29.5994 52.7382 19.7706
3040 1 30.6187 48.6543 18.3338
676 1 28.4018 49.4152 17.1762
2757 1 27.2375 51.6659 20.8343
840 1 32.055 49.1605 20.7028
3063 1 33.5606 49.0418 18.2943
5034 2 32.7276 51.5957 19.6849
4607 2 34.9893 50.9821 16.934
2072 1 35.5098 50.854 19.7822
3253 1 32.9814 52.5287 16.3073
6334 2 36.7712 48.8214 18.2012
3113 1 34.5334 53.363 18.2497
2976 1 37.2988 49.1947 21.1281
1277 1 41.542 48.2564 16.8133
4762 2 37.3952 52.9369 17.1416
3004 1 39.3796 49.0882 19.2483
3894 1 40.5853 49.2383 21.3179
5292 2 42.1303 50.0532 18.6853
4078 1 41.5769 52.5985 17.6909
6587 2 38.7742 51.5221 19.6318
3916 1 41.2493 52.2362 20.2958
4391 2 39.5576 50.4562 16.8076
2981 1 44.6771 50.7584 18.6841
3033 1 46.1385 49.1395 17.1127
1398 1 46.1005 51.6228 17.0176
278 1 46.2127 53.0671 19.9137
3445 1 45.5284 50.5965 21.1567
186 1 43.6634 50.9087 16.4148
6345 2 47.6823 50.8073 19.6091
5299 2 44.1933 53.5414 17.9079
3348 1 43.9868 52.4758 20.3687
2025 1 51.9422 48.2514 19.5457
2392 1 49.4145 52.3615 21.2319
123 1 50.7509 48.4762 17.4661
3757 1 52.4343 50.2146 21.5746
4993 2 50.8973 50.7787 19.0396
6000 2 48.6941 51.6879 16.8146
654 1 51.7793 51.8894 16.4816
4936 2 53.2621 49.7637 17.1485
6128 2 57.506 48.7737 16.6194
1548 1 56.5104 48.9233 18.8233
4038 1 54.3922 50.3269 19.931
89 1 53.4499 52.3617 18.6171
239 1 55.9258 50.5546 17.6576
4111 1 58.0598 51.7862 18.0941
2984 1 56.7279 51.1517 20.0499
4486 2 54.913 52.6252 16.4142
1301 1 54.7063 52.6239 20.8634
1789 1 63.1053 52.1441 17.4529
211 1 63.4392 50.2571 19.3002
4598 2 62.0794 48.7261 17.7587
4517 2 58.739 49.4225 19.7429
4033 1 61.4557 50.3866 63.5477
1989 1 59.5343 50.1919 16.9792
1547 1 61.1362 51.2657 18.56
5478 2 62.3103 52.7174 20.1922
6663 2 61.527 49.3226 20.7093
6376 2 60.2865 52.5442 16.2333
6277 2 59.348 51.6153 21.3782
5825 2 19.5859 52.9356 17.7313
2903 1 16.9849 57.0116 21.0387
121 1 20.1306 57.9727 18.8247
6719 2 18.8435 55.6292 19.4017
2499 1 17.2899 57.5057 18.4487
2437 1 19.3492 56.6414 16.7143
5996 2 17.1411 54.8608 16.8032
5664 2 21.679 58.4651 16.4929
2853 1 16.3461 55.1196 19.4723
2551 1 21.315 55.8654 17.7824
1026 1 21.8054 56.6656 20.7621
2267 1 21.8651 54.8398 19.9716
3877 1 22.9335 57.2574 18.561
6104 2 24.6589 55.1692 19.1103
3843 1 24.7165 56.9364 16.8953
2166 1 25.6505 57.7772 19.3434
4813 2 22.7057 53.861 16.9115
3628 1 27.0348 53.9606 19.5172
1723 1 31.69 53.6759 18.276
2058 1 29.2152 53.6813 17.6613
5876 2 27.3627 56.0824 17.2955
3413 1 30.1155 55.9398 17.0046
773 1 29.0576 55.479 19.5001
2202 1 31.1497 56.5317 19.1122
4219 1 28.959 58.0111 18.389
5425 2 31.6505 58.4486 17.0864
5957 2 28.0512 58.1657 20.6915
4331 2 31.2857 59.3746 21.1813
4505 2 36.2907 53.6668 20.1343
1741 1 33.1558 57.8058 19.4309
895 1 35.6882 55.6635 18.1418
2997 1 36.1116 57.234 20.1752
4804 2 33.6909 55.4576 20.3379
3773 1 34.3819 58.1995 17.7134
5208 2 33.1888 55.8823 17.0225
5961 2 36.8514 57.8372 16.8065
1486 1 34.1327 58.7192 21.0136
3448 1 39.3481 53.8677 21.0015
2715 1 39.4819 53.932 17.9293
4947 2 38.3135 55.8006 19.4922
1571 1 41.8148 54.8579 16.8471
6505 2 41.7504 54.6024 19.4444
2183 1 39.9754 56.7965 17.559
4092 1 42.117 57.5699 17.4923
1725 1 37.8913 55.4294 16.3239
4775 2 40.9153 57.8272 20.0508
1088 1 38.403 57.8436 21.4327
3124 1 38.3431 58.5085 18.9635
610 1 43.6901 56.0099 18.0964
4055 1 45.9923 55.341 19.3656
900 1 47.1519 57.5572 20.1146
3819 1 44.2763 54.792 20.8851
497 1 46.4156 57.0836 17.5348
5307 2 43.979 57.8709 19.9669
5674 2 47.0667 54.25 17.0415
2674 1 44.4569 58.0651 16.4557
3400 1 48.7355 53.2436 19.0675
1857 1 51.4009 53.5369 19.103
1836 1 48.4115 55.663 19.3897
6648 2 50.4225 54.1042 16.8282
4153 1 50.3601 54.7863 20.9767
4889 2 51.1193 56.2733 18.3881
562 1 49.73 57.1446 21.0944
5445 2 52.6849 57.5791 16.1452
6594 2 48.777 58.4167 18.4053
3790 1 52.0195 57.1689 21.554
568 1 53.0531 54.6492 17.1167
5375 2 56.0684 53.5198 19.0602
1663 1 53.3777 58.1497 19.6244
6096 2 53.6034 55.1853 19.9548
3003 1 54.3519 56.5851 18.0556
3015 1 56.3029 56.2809 19.2686
3375 1 58.007 57.8132 20.0459
4732 2 58.1594 57.0883 17.5933
1991 1 58.4388 54.2565 16.8809
3758 1 55.7576 55.4602 16.7313
4922 2 58.5598 55.0597 20.3614
4030 1 59.793 53.0213 18.9689
2256 1 60.4057 55.2365 18.5434
5697 2 62.4441 55.8068 20.8936
655 1 62.3702 54.5246 17.8128
4599 2 62.6789 57.1128 17.7592
848 1 60.421 57.7203 18.8916
3641 1 60.3743 58.7139 16.4232
4053 1 18.5263 59.0522 16.8708
965 1 17.8821 59.2392 19.6631
5671 2 20.3062 60.7829 18.0454
5086 2 17.1635 62.0649 18.878
3215 1 19.8297 63.7303 18.2086
2915 1 17.2562 60.5873 21.3746
2793 1 18.4312 61.7738 16.7587
1586 1 19.7576 60.5537 20.74
4912 2 64.0528 59.8915 17.2948
2522 1 18.5527 62.9319 21.1613
197 1 20.494 62.5516 63.681
5116 2 22.452 16.1489 17.5618
8 1 23.9845 59.5005 18.0839
5388 2 22.2418 59.5604 20.1487
3914 1 22.7223 60.906 16.8578
1106 1 23.1544 61.9498 19.075
2379 1 24.9746 64.0289 18.4406
4530 2 25.3791 60.1669 20.6045
6 1 25.4278 61.8151 17.8234
605 1 25.8639 16.3246 16.3832
2705 1 21.0048 63.004 20.3914
5183 2 24.7828 63.298 20.8536
6403 2 27.2907 59.8292 17.8966
5727 2 29.5811 63.4217 20.1671
1525 1 30.3593 63.0749 17.3409
4913 2 27.7617 62.8833 17.7489
2678 1 30.0502 60.2895 18.2259
3779 1 31.3619 61.6603 19.3461
954 1 29.0706 60.9547 20.7189
2911 1 27.049 62.172 20.2706
1919 1 35.7229 63.7008 19.7047
1865 1 32.3584 61.4915 17.2497
4780 2 35.9617 59.8395 19.3923
4792 2 32.8485 63.8352 18.6897
2178 1 33.1006 60.1259 18.7282
3415 1 34.8547 61.976 18.6407
2213 1 36.5144 62.0537 21.2871
5487 2 33.8325 61.5926 21.0348
6511 2 34.4538 60.2658 16.2257
5809 2 36.8598 63.2623 16.8668
644 1 37.4116 60.4254 16.8543
645 1 39.4593 63.5084 17.1535
6603 2 39.8749 60.7694 17.968
1681 1 37.5069 61.8733 18.9276
3374 1 41.5949 60.633 20.1076
3860 1 38.8303 60.4376 20.5228
3524 1 39.6113 63.0601 19.6667
3597 1 41.7945 62.5005 18.6775
6271 2 42.3891 63.0742 21.7481
4196 1 42.6626 60.1737 17.8543
5326 2 45.6775 59.8233 18.328
1016 1 43.5491 62.3958 17.2338
1556 1 46.4038 62.5083 17.7286
5591 2 44.3695 62.1202 19.5302
430 1 46.3959 59.7163 21.2071
966 1 47.5277 61.7988 20.1109
3517 1 43.8024 60.0449 21.2232
4205 1 52.6451 15.9924 17.9004
2400 1 48.0588 60.852 17.7278
2627 1 51.296 58.814 19.7016
4989 2 51.5972 63.5959 20.2672
3183 1 48.7862 59.5446 20.6741
3942 1 51.4976 59.5202 17.5342
4463 2 49.2916 63.7167 18.0797
1979 1 49.761 60.7311 16.323
2623 1 49.8741 61.2884 19.237
296 1 51.2564 61.9057 16.9747
947 1 49.2383 63.0568 21.2814
3905 1 53.0517 59.5611 21.7452
1771 1 50.9276 61.0625 21.2682
262 1 57.2078 16.3722 20.632
5324 2 53.3654 61.3373 19.1067
5930 2 55.746 58.9779 18.5028
5088 2 55.8254 63.874 18.1788
2756 1 54.6761 63.506 20.6154
432 1 55.3267 60.0966 21.0504
5908 2 56.7477 61.464 19.3893
1153 1 56.8879 61.7166 16.254
1111 1 57.831 59.4756 16.533
4110 1 54.2668 62.8104 16.3851
3570 1 54.45 60.3444 16.3425
2428 1 58.5339 59.7303 18.9927
5946 2 62.9226 58.8365 20.3429
5932 2 59.2648 61.9031 16.9912
1358 1 62.5847 61.3832 19.9847
412 1 61.179 59.8823 18.3311
6468 2 59.8176 62.8805 19.6875
3101 1 62.1525 62.1795 18.0065
4390 2 60.1303 60.0117 20.9601
3830 1 61.956 60.7912 63.8098
3980 1 15.9827 62.3243 16.3175
5743 2 19.0249 19.6194 23.0033
1196 1 16.5561 16.9901 24.2495
4717 2 20.6415 18.0645 25.0325
5572 2 17.1385 19.5092 25.5453
1802 1 19.0217 16.4407 23.0726
3039 1 20.5417 21.7413 22.2478
1426 1 17.0477 16.9603 21.6781
2542 1 18.5509 16.6422 25.7314
4083 1 16.3392 19.1754 23.0584
4216 1 19.823 20.9797 25.0613
2672 1 22.0824 19.4659 22.6204
1898 1 23.9131 18.6548 24.2188
5397 2 22.4304 16.9465 22.668
3559 1 25.3958 16.5548 23.4696
5363 2 26.1738 17.9875 25.6989
4602 2 25.1596 20.3899 23.2364
4428 2 22.8266 63.5031 25.3063
6179 2 22.4675 20.8433 24.8191
1911 1 25.9284 62.7525 25.4907
2552 1 24.4296 20.3342 26.224
2731 1 28.3337 21.0443 23.249
5803 2 27.2306 18.6528 22.8974
4434 2 30.6762 19.2931 23.6672
1271 1 29.7587 17.4847 22.1323
3412 1 28.2262 16.4466 24.1578
2357 1 28.4324 19.62 24.9645
3139 1 30.8321 19.5728 26.439
6549 2 30.8986 63.9496 24.2677
4159 1 31.958 17.2606 26.5096
544 1 34.5615 16.3221 21.7054
1451 1 33.4347 20.3626 23.281
4783 2 35.7274 20.3625 25.0271
1522 1 37.3737 20.962 22.9045
1782 1 35.3335 18.8398 22.8676
6348 2 33.3449 17.5938 24.0443
2983 1 33.1753 19.1316 26.1949
584 1 36.1607 17.6112 25.0742
86 1 34.8821 18.2648 27.0193
1942 1 37.4554 17.9661 22.9829
4609 2 40.1871 17.233 22.259
4998 2 38.4679 19.181 25.173
5602 2 41.6772 19.3966 24.4257
5509 2 42.0931 16.148 24.9927
3312 1 39.7488 19.8796 22.9426
2179 1 43.1257 18.1148 22.4807
5393 2 40.1965 17.5611 26.7602
191 1 42.4972 63.6123 27.6018
4082 1 44.3579 19.2897 24.9856
4853 2 45.9112 18.7206 22.7611
1744 1 46.9841 17.4022 25.1214
1773 1 43.9675 20.5089 22.2816
1107 1 46.9412 20.039 25.4863
2329 1 48.1381 20.2408 23.0837
4316 1 45.5311 21.1607 24.0954
53 1 51.3991 18.106 21.7246
2637 1 51.4129 17.0522 24.3126
4757 2 48.9197 17.3888 22.9933
3324 1 50.4748 19.7656 23.6033
5710 2 49.5267 17.8616 25.903
6630 2 52.1231 19.8874 26.0028
5378 2 49.0814 21.5145 25.3235
2097 1 52.5282 20.9647 23.5859
2318 1 53.3211 17.3429 25.9823
527 1 55.3331 19.8101 21.0977
4249 1 53.4977 16.3072 22.4949
5360 2 53.5116 18.7138 23.3523
376 1 55.704 17.4258 22.13
247 1 55.7338 20.2101 23.8348
5122 2 57.2658 18.5368 25.1481
1410 1 55.0083 17.0768 24.4575
5938 2 57.6841 19.1577 22.098
1713 1 57.5803 63.807 24.36
4772 2 62.6001 20.1518 21.2887
4749 2 61.9439 17.1786 25.9452
5386 2 62.08 17.0751 22.4029
3634 1 60.1535 18.8543 21.8269
1594 1 59.3542 20.1803 23.8276
2349 1 61.8295 19.082 24.1463
2284 1 59.4895 17.5864 24.0067
2458 1 59.325 63.9069 22.3344
1000 1 58.9733 16.8869 26.1454
6720 2 60.3997 22.0519 22.4545
5119 2 60.1291 19.5799 26.2576
2373 1 17.0656 21.4347 22.4206
1380 1 17.6416 22.258 24.9964
1537 1 17.811 25.1475 24.9504
5527 2 18.8958 23.581 23.0891
375 1 20.4849 25.3638 24.6349
5537 2 16.3849 25.2699 22.5567
401 1 19.9648 23.6636 25.9576
6592 2 21.2994 25.204 22.0178
6653 2 19.2331 26.8787 26.7727
6501 2 22.918 22.3187 21.9576
2946 1 24.539 23.2351 24.2867
613 1 21.6271 23.4317 24.1944
4934 2 23.4245 25.5758 24.8837
6379 2 24.5686 25.4401 22.117
847 1 25.2625 24.1694 26.7447
1794 1 26.417 22.8508 22.779
5052 2 26.7985 25.1005 24.4621
6526 2 26.6695 21.8702 25.3479
1288 1 27.097 24.9882 21.5579
6134 2 29.9455 22.0051 25.6303
4965 2 29.2241 23.7537 23.0216
6647 2 29.9939 25.26 25.748
634 1 31.0835 26.3166 22.8447
3067 1 27.6372 23.6765 26.7735
2846 1 31.3114 21.7714 23.2622
233 1 31.895 24.3515 24.2266
3944 1 28.3751 26.6738 22.6676
3134 1 37.0679 22.6485 24.6822
4481 2 32.8107 22.0017 25.5692
6737 2 34.6526 23.0948 22.9077
6688 2 34.4497 24.934 25.5198
6478 2 36.8013 25.7868 23.7308
2298 1 35.5684 22.3635 26.6361
2388 1 32.5043 26.5218 24.7855
2852 1 32.2221 24.6543 26.8259
6142 2 33.9218 26.2934 22.6865
6733 2 37.8141 23.251 21.9637
1699 1 39.378 22.0896 24.0189
4375 2 42.3031 22.2713 22.977
2593 1 40.2936 24.8259 22.3935
2794 1 40.6996 21.6793 26.0797
6496 2 41.7886 24.2269 25.0381
3806 1 39.1162 24.5892 24.7971
1390 1 37.1294 26.9218 25.9921
3371 1 41.7177 26.8393 24.2035
940 1 42.787 25.2964 22.54
1694 1 43.3098 21.6403 25.6635
1223 1 44.9355 26.4138 22.2917
5653 2 44.6075 23.7038 23.6542
1659 1 46.8661 24.9533 21.7703
188 1 44.0212 26.1626 24.9417
5992 2 47.4767 25.0317 25.1442
794 1 44.6092 23.6641 26.3077
373 1 47.9161 22.8166 23.5423
3647 1 46.6962 22.7846 25.875
3167 1 51.4216 22.6768 25.7405
4405 2 49.4819 25.0932 22.6246
3739 1 50.5554 22.4853 23.2768
5735 2 52.888 23.5787 23.5484
1029 1 50.02 24.1952 25.0946
371 1 49.2164 26.0098 26.4369
3301 1 53.0079 26.2922 22.1178
4345 2 51.5911 26.5298 24.9337
6140 2 54.7839 24.5796 21.3407
236 1 54.2431 21.7766 24.989
4315 1 54.5612 21.9616 22.4354
6513 2 57.4187 22.284 22.5762
6147 2 57.6517 21.5254 25.7487
1921 1 56.946 25.7119 22.0939
1774 1 54.7625 25.9185 23.7586
1625 1 55.6736 23.7566 24.1743
4769 2 53.8039 24.3553 26.4765
6322 2 58.0837 25.0562 24.7578
1513 1 59.2611 23.6606 20.9149
2503 1 63.8203 23.9925 25.1064
6671 2 62.6963 21.4655 24.3132
2243 1 59.6945 22.9792 24.7154
223 1 61.814 24.4298 23.2373
5610 2 61.2883 25.5983 25.5971
4496 2 59.7659 26.3947 22.536
4900 2 61.3188 22.609 26.7342
5061 2 18.3422 27.2624 23.8488
4182 1 19.5207 29.2302 25.4045
3778 1 16.5595 27.8067 21.6097
4735 2 21.394 27.9589 23.569
478 1 19.0503 31.117 25.8198
2693 1 18.7653 30.0905 23.6491
4056 1 17.0252 29.3544 25.6363
511 1 21.3181 27.9139 26.2513
4230 1 20.911 31.2191 23.7744
5705 2 21.6262 30.778 26.2614
2597 1 23.887 27.9756 22.7246
6325 2 25.697 30.4842 23.305
768 1 23.0348 30.2736 23.9448
3428 1 23.7868 28.5898 25.4406
1384 1 26.4338 27.6117 21.6779
4231 1 25.8102 27.2795 24.2624
1338 1 26.5269 29.2785 25.6119
1910 1 23.4263 31.8942 22.6375
3311 1 24.5609 30.8085 26.247
226 1 27.8057 29.0117 23.2435
6419 2 30.3527 28.3629 24.2912
146 1 28.726 30.1987 25.1686
1282 1 28.225 27.3633 25.3566
6225 2 29.1083 31.3361 22.8545
6003 2 32.0724 31.0547 24.1809
2272 1 30.8617 30.4604 26.5251
3642 1 32.0942 32.1933 26.765
2885 1 34.8029 27.7243 25.645
2872 1 36.679 27.6216 21.6601
700 1 32.3251 28.8375 22.6934
1807 1 32.8592 28.8675 25.5248
6194 2 35.404 29.541 23.0194
3224 1 36.8051 30.9168 25.2067
6321 2 34.3725 30.6651 25.9574
2713 1 33.5879 26.5808 27.5351
4364 2 36.0745 28.9163 27.8869
4232 1 37.4483 28.4061 24.6092
5665 2 39.344 27.158 23.0615
6025 2 40.9569 29.922 22.1846
2010 1 38.2979 29.8627 22.6035
1431 1 39.9407 29.4511 24.6111
3142 1 41.9449 31.1838 24.4374
5091 2 39.3981 31.7701 24.292
6338 2 39.71 26.7799 26.1845
5547 2 45.3713 29.3942 21.1453
4940 2 42.9774 28.6731 25.3235
2583 1 43.2597 28.2285 22.5707
687 1 47.5315 27.2023 22.2771
2324 1 43.7111 30.6041 22.8305
2928 1 44.1737 31.4398 25.4767
5987 2 46.0383 28.1704 24.0235
3143 1 45.8344 31.364 23.2636
6397 2 48.3318 29.9413 23.1146